<VTKFile type="UnstructuredGrid" version="1.0" byte_order="LittleEndian" header_type="UInt64">
  <UnstructuredGrid>
    <Piece NumberOfPoints="14497" NumberOfCells="6398">
      <CellData Scalars="Model" >
        <DataArray type="Float64" Name="WaterTableElev" format="ascii">
          4539.41015625 4551.08984375 4565.669921875 4579.3701171875 4588.72021484375 4505.18994140625 4505.64013671875 4506.85009765625 4509.56982421875 4510.919921875 4514.1298828125 4524.3701171875 4544.35986328125 4562.10986328125 4578.43994140625 4592.3701171875 4605.3701171875 4613.6201171875 4507.509765625 4505.3701171875 4503.39013671875
          4503.2900390625 4504.72998046875 4505.14013671875 4508.60009765625 4510.47021484375 4514.5498046875 4521.06982421875 4536.5400390625 4556.31982421875 4574.740234375 4591.0 4605.2900390625 4616.27001953125 4624.56982421875 4516.2900390625 4512.7099609375 4507.759765625 4503.18994140625 4500.02978515625 4496.89990234375
          4498.72021484375 4498.85986328125 4504.919921875 4508.22998046875 4511.14990234375 4514.66015625 4525.330078125 4548.18994140625 4569.14990234375 4587.47021484375 4603.81005859375 4617.3701171875 4627.8798828125 4634.75 4523.18017578125 4515.4501953125 4509.60986328125 4508.3798828125 4499.60009765625 4494.22021484375
          4492.009765625 4493.0498046875 4496.81005859375 4502.31005859375 4505.580078125 4510.18017578125 4515.919921875 4522.9501953125 4538.240234375 4562.14013671875 4581.43017578125 4600.81982421875 4617.72998046875 4630.080078125 4636.89013671875 4534.52978515625 4526.35009765625 4517.169921875 4509.35009765625 4496.93994140625
          4493.1201171875 4490.77978515625 4490.39013671875 4491.47998046875 4494.3798828125 4500.43994140625 4505.02978515625 4508.77001953125 4515.60009765625 4530.919921875 4548.7900390625 4555.68017578125 4571.06982421875 4596.8798828125 4618.89990234375 4633.080078125 4641.0 4543.02001953125 4536.83984375 4527.64990234375
          4516.7900390625 4502.759765625 4490.9501953125 4489.6298828125 4489.330078125 4488.68994140625 4489.60986328125 4491.759765625 4497.43994140625 4504.2998046875 4508.41015625 4515.02978515625 4522.68017578125 4553.6201171875 4566.66015625 4583.5 4606.27978515625 4624.3701171875 4638.14990234375 4648.22998046875
          4654.97021484375 4543.22021484375 4537.1298828125 4527.3798828125 4515.240234375 4500.81982421875 4489.97021484375 4488.35986328125 4487.2900390625 4487.0 4487.7998046875 4490.1298828125 4494.7900390625 4499.27978515625 4507.58984375 4518.330078125 4539.31005859375 4562.9599609375 4581.08984375 4598.2998046875
          4615.72021484375 4631.06982421875 4643.4501953125 4652.77001953125 4657.6298828125 4548.77978515625 4544.02001953125 4536.240234375 4525.56005859375 4511.85986328125 4493.8701171875 4488.080078125 4486.89013671875 4486.83984375 4485.5400390625 4485.759765625 4487.56982421875 4494.64990234375 4500.490234375 4509.64013671875
          4529.490234375 4551.22998046875 4572.8701171875 4591.419921875 4608.22021484375 4623.580078125 4637.0 4648.1201171875 4656.64013671875 4660.85986328125 4547.64990234375 4542.68994140625 4534.22998046875 4522.6201171875 4508.6298828125 4492.43017578125 4484.72021484375 4483.35009765625 4481.97021484375 4483.5498046875
          4483.93017578125 4484.419921875 4493.27978515625 4499.4501953125 4509.52001953125 4535.3701171875 4558.5 4579.7998046875 4598.16015625 4614.39013671875 4628.759765625 4641.3798828125 4651.740234375 4659.77978515625 4663.9599609375 4545.259765625 4540.0 4530.7998046875 4518.35986328125 4503.60986328125
          4486.7998046875 4482.5 4481.18994140625 4480.75 4480.47021484375 4479.93994140625 4480.10009765625 4481.0400390625 4488.0400390625 4513.81982421875 4539.91015625 4562.919921875 4583.39990234375 4601.5498046875 4617.47021484375 4631.5 4643.66015625 4653.919921875 4661.9501953125 4666.68017578125
          4542.919921875 4536.91015625 4526.35986328125 4512.81982421875 4496.39013671875 4483.08984375 4481.419921875 4479.9599609375 4479.8798828125 4478.9501953125 4478.47021484375 4478.2001953125 4479.68994140625 4483.52978515625 4513.990234375 4541.31982421875 4564.97998046875 4585.259765625 4601.91015625 4617.330078125
          4631.56005859375 4643.68994140625 4654.2001953125 4662.81982421875 4669.080078125 4673.02001953125 4546.18017578125 4541.89013671875 4533.64990234375 4521.16015625 4506.02978515625 4493.16015625 4481.68994140625 4480.31005859375 4478.91015625 4479.080078125 4478.72021484375 4478.740234375 4478.43017578125 4478.5400390625
          4485.14990234375 4513.5 4541.14990234375 4564.60986328125 4585.9599609375 4600.58984375 4613.75 4628.77001953125 4640.830078125 4652.35009765625 4661.759765625 4668.5 4672.08984375 4545.6201171875 4540.5400390625 4530.64990234375 4515.5498046875 4491.9599609375 4487.43994140625 4480.5400390625
          4478.89990234375 4478.14013671875 4477.990234375 4478.7998046875 4478.9501953125 4479.66015625 4481.97998046875 4486.56005859375 4510.85009765625 4539.5400390625 4560.35009765625 4582.169921875 4597.75 4612.009765625 4624.4501953125 4635.259765625 4649.0498046875 4659.169921875 4666.22021484375 4669.58984375
          4544.8798828125 4539.3798828125 4529.080078125 4514.0 4494.02001953125 4484.41015625 4479.64990234375 4478.419921875 4478.0498046875 4478.52001953125 4480.5498046875 4481.1201171875 4485.740234375 4488.740234375 4493.72998046875 4507.419921875 4539.64013671875 4550.52978515625 4580.14990234375 4590.64013671875
          4602.14013671875 4616.259765625 4633.580078125 4646.31982421875 4655.919921875 4662.6298828125 4666.06982421875 4544.18017578125 4538.490234375 4528.18017578125 4513.56005859375 4494.419921875 4484.22998046875 4478.5400390625 4476.83984375 4476.60986328125 4478.27001953125 4481.5400390625 4485.8798828125 4493.72021484375
          4502.0 4509.75 4514.990234375 4551.31982421875 4562.85986328125 4575.02978515625 4588.41015625 4592.60009765625 4615.1298828125 4631.02978515625 4642.89013671875 4651.68017578125 4657.759765625 4660.990234375 4543.27978515625 4537.60986328125 4527.669921875 4513.64990234375 4495.10009765625 4480.43994140625
          4477.89990234375 4475.5 4474.75 4473.9501953125 4480.27978515625 4487.68994140625 4497.02978515625 4506.93994140625 4518.2900390625 4531.2900390625 4551.56005859375 4566.60009765625 4579.9501953125 4592.7001953125 4597.58984375 4615.18994140625 4628.39013671875 4638.75 4646.2099609375 4651.080078125
          4653.1298828125 4649.4501953125 4542.1201171875 4536.6201171875 4527.16015625 4514.0400390625 4497.52978515625 4480.27001953125 4476.8798828125 4474.66015625 4471.8798828125 4474.10986328125 4476.1298828125 4483.31005859375 4495.2001953125 4506.75 4519.77001953125 4534.330078125 4551.27001953125 4566.47998046875
          4580.240234375 4592.58984375 4602.509765625 4614.740234375 4624.81982421875 4632.8701171875 4638.6298828125 4641.93017578125 4641.89990234375 4639.669921875 4635.10986328125 4632.240234375 4540.740234375 4535.33984375 4526.25 4513.43017578125 4496.68017578125 4481.9501953125 4476.0400390625 4472.5498046875
          4473.2001953125 4473.7001953125 4478.2998046875 4482.47021484375 4489.47998046875 4500.77978515625 4515.240234375 4530.93017578125 4547.35009765625 4562.669921875 4576.58984375 4589.18017578125 4600.56982421875 4610.89990234375 4618.93994140625 4624.35009765625 4627.02001953125 4628.1201171875 4628.759765625 4628.169921875
          4626.02978515625 4623.47021484375 4619.3798828125 4539.64990234375 4533.39013671875 4524.89013671875 4512.52001953125 4496.72998046875 4478.68994140625 4472.68994140625 4469.72998046875 4472.0 4475.6298828125 4478.10986328125 4480.10986328125 4485.89013671875 4488.14013671875 4504.68994140625 4522.490234375 4540.5400390625
          4556.43994140625 4570.27978515625 4581.7099609375 4593.22998046875 4602.43017578125 4608.27001953125 4611.490234375 4612.93994140625 4614.14990234375 4614.89013671875 4614.7099609375 4613.27001953125 4611.52001953125 4608.4599609375 4603.490234375 4601.43017578125 4486.93017578125 4489.52978515625 4529.330078125 4522.2900390625
          4510.490234375 4495.18017578125 4476.60986328125 4469.240234375 4467.10986328125 4466.47021484375 4470.47998046875 4478.169921875 4479.419921875 4481.7900390625 4485.759765625 4494.7998046875 4509.7900390625 4531.509765625 4548.47021484375 4562.0498046875 4572.6201171875 4580.68994140625 4587.5498046875 4592.64990234375
          4595.6298828125 4597.0 4597.2001953125 4597.27978515625 4597.5498046875 4597.27978515625 4596.66015625 4595.7099609375 4594.7001953125 4594.02001953125 4591.7001953125 4465.6298828125 4479.16015625 4486.7900390625 4493.31005859375 4497.9599609375 4525.56982421875 4518.77001953125 4508.10009765625 4493.43994140625
          4475.419921875 4466.58984375 4465.56982421875 4465.66015625 4470.43017578125 4473.919921875 4478.259765625 4480.7099609375 4480.97998046875 4493.10986328125 4503.68017578125 4523.58984375 4539.5400390625 4552.3798828125 4561.89013671875 4569.10009765625 4574.22021484375 4577.0400390625 4578.06005859375 4577.52978515625
          4576.1201171875 4575.81005859375 4576.27978515625 4576.6298828125 4577.990234375 4579.56005859375 4581.4501953125 4582.77978515625 4582.85986328125 4579.5 4442.66015625 4456.60009765625 4471.06982421875 4481.2001953125 4489.68994140625 4497.27001953125 4502.9501953125 4506.3798828125 4520.580078125 4514.6298828125
          4505.2099609375 4491.64013671875 4474.31982421875 4462.97021484375 4462.81982421875 4464.18994140625 4466.669921875 4468.25 4469.919921875 4475.14013671875 4478.1201171875 4487.77001953125 4497.14990234375 4515.009765625 4530.16015625 4541.85009765625 4549.7900390625 4555.8701171875 4559.02001953125 4559.830078125
          4557.9599609375 4553.9599609375 4549.6298828125 4550.10009765625 4550.33984375 4551.52978515625 4555.10009765625 4559.27978515625 4565.919921875 4568.7099609375 4571.14990234375 4569.7900390625 4566.5 4433.669921875 4440.5400390625 4454.0400390625 4463.0498046875 4471.8798828125 4483.35986328125 4492.85009765625
          4500.009765625 4504.72021484375 4507.64013671875 4510.7099609375 4514.2099609375 4514.3701171875 4514.2001953125 4509.56982421875 4501.5400390625 4489.81005859375 4473.85986328125 4461.68994140625 4460.66015625 4460.06005859375 4461.330078125 4464.3798828125 4468.93017578125 4473.97998046875 4476.759765625 4486.43994140625
          4493.14013671875 4511.18017578125 4519.43994140625 4531.2900390625 4535.080078125 4540.93017578125 4542.35009765625 4540.60009765625 4536.27978515625 4525.580078125 4519.39990234375 4519.68017578125 4521.18994140625 4520.52001953125 4528.009765625 4532.91015625 4548.47998046875 4559.10009765625 4560.330078125 4558.72021484375
          4558.6298828125 4550.919921875 4414.10986328125 4418.22021484375 4430.75 4450.91015625 4456.22021484375 4456.91015625 4473.6201171875 4486.64013671875 4494.64013671875 4499.81005859375 4502.93994140625 4504.89990234375 4506.759765625 4507.8798828125 4507.35009765625 4503.72998046875 4497.1298828125 4487.81982421875
          4475.9501953125 4462.4501953125 4459.41015625 4458.47021484375 4459.66015625 4461.5400390625 4463.81982421875 4464.56005859375 4471.6298828125 4481.85986328125 4487.2998046875 4503.18017578125 4514.2001953125 4520.85009765625 4525.81005859375 4526.39990234375 4524.490234375 4520.14990234375 4516.240234375 4507.56005859375
          4502.77978515625 4501.830078125 4502.8701171875 4504.93994140625 4507.56982421875 4526.5498046875 4535.81982421875 4549.0 4555.080078125 4554.419921875 4554.56005859375 4554.97998046875 4555.85986328125 4385.16015625 4391.35009765625 4416.6201171875 4428.93994140625 4446.93017578125 4452.080078125 4455.580078125
          4469.330078125 4479.580078125 4487.1201171875 4491.77978515625 4494.27978515625 4495.81982421875 4497.02978515625 4498.669921875 4498.7900390625 4496.2998046875 4491.35009765625 4484.16015625 4475.2099609375 4465.3701171875 4459.830078125 4459.2998046875 4459.7099609375 4461.72021484375 4463.66015625 4465.91015625
          4468.759765625 4473.9501953125 4486.2001953125 4495.52001953125 4502.5 4507.35986328125 4508.06982421875 4509.419921875 4504.31005859375 4502.47998046875 4497.4599609375 4498.83984375 4499.06005859375 4500.02001953125 4501.5400390625 4503.4599609375 4513.759765625 4527.7900390625 4531.68994140625 4541.33984375
          4548.490234375 4553.009765625 4554.43994140625 4559.509765625 4562.93017578125 4567.4501953125 4375.669921875 4389.68994140625 4400.759765625 4410.14013671875 4430.22021484375 4447.259765625 4454.56005859375 4462.3798828125 4470.35009765625 4476.669921875 4480.3798828125 4481.91015625 4482.97998046875 4484.509765625
          4487.31005859375 4488.580078125 4487.1298828125 4483.18994140625 4477.419921875 4471.02978515625 4465.47998046875 4461.33984375 4458.5 4461.89013671875 4462.8701171875 4467.02001953125 4466.02001953125 4468.02978515625 4475.490234375 4482.56005859375 4488.43017578125 4488.759765625 4493.18017578125 4494.0400390625
          4494.75 4494.60009765625 4494.85009765625 4495.259765625 4496.31005859375 4497.27978515625 4498.9599609375 4502.080078125 4511.35009765625 4524.97998046875 4535.39013671875 4543.02978515625 4544.39990234375 4546.02001953125 4554.2099609375 4556.22021484375 4561.6201171875 4564.68017578125 4329.7001953125 4370.60009765625
          4366.66015625 4374.93994140625 4393.759765625 4410.6201171875 4427.08984375 4439.830078125 4449.7900390625 4458.22021484375 4464.06982421875 4466.259765625 4465.10986328125 4463.81982421875 4465.83984375 4473.60009765625 4476.6298828125 4475.77978515625 4472.009765625 4466.68017578125 4461.3798828125 4459.6201171875
          4456.9501953125 4467.56005859375 4468.68994140625 4470.47021484375 4471.6298828125 4471.14013671875 4473.25 4478.4599609375 4481.85986328125 4487.14013671875 4488.6201171875 4488.580078125 4491.02978515625 4490.68994140625 4491.0 4492.89990234375 4493.9599609375 4495.02001953125 4496.10009765625 4508.68017578125
          4519.85009765625 4529.18017578125 4537.009765625 4541.14013671875 4545.68017578125 4548.080078125 4549.2900390625 4302.97998046875 4312.5 4325.91015625 4322.22998046875 4345.43017578125 4362.0 4385.7001953125 4404.490234375 4421.27001953125 4434.509765625 4444.419921875 4449.8798828125 4449.77001953125
          4443.06005859375 4449.52001953125 4448.18017578125 4460.2998046875 4463.9599609375 4462.02978515625 4457.1298828125 4451.97021484375 4443.68017578125 4454.08984375 4467.52001953125 4476.14990234375 4483.14013671875 4486.7001953125 4486.64990234375 4483.52001953125 4483.83984375 4483.93017578125 4488.08984375 4488.72021484375
          4489.41015625 4489.8701171875 4491.52001953125 4491.66015625 4492.22021484375 4491.97021484375 4493.81005859375 4495.1298828125 4497.02001953125 4521.2001953125 4535.06005859375 4543.1201171875 4547.60009765625 4289.27978515625 4281.5 4282.1201171875 4290.009765625 4315.93994140625 4348.7900390625 4360.7998046875
          4375.89013671875 4399.14013671875 4416.740234375 4430.5400390625 4436.83984375 4436.080078125 4434.10009765625 4442.2001953125 4442.64013671875 4449.43017578125 4450.66015625 4446.740234375 4438.43994140625 4435.35986328125 4442.72998046875 4457.259765625 4475.41015625 4488.06982421875 4496.89013671875 4502.39990234375
          4504.509765625 4503.91015625 4501.27978515625 4498.9599609375 4500.35986328125 4500.77001953125 4496.2900390625 4494.47021484375 4494.5498046875 4494.169921875 4495.33984375 4494.64990234375 4494.8701171875 4497.7001953125 4521.2998046875 4539.41015625 4549.759765625 4554.93017578125 4556.7998046875 4281.759765625
          4277.3798828125 4269.39990234375 4271.89990234375 4283.259765625 4312.4501953125 4338.85009765625 4359.740234375 4376.31982421875 4394.56005859375 4405.75 4419.66015625 4425.77001953125 4424.27001953125 4422.31982421875 4427.35986328125 4434.5498046875 4439.58984375 4438.16015625 4430.9599609375 4432.02001953125
          4435.83984375 4450.41015625 4462.56005859375 4484.1201171875 4499.2001953125 4509.93017578125 4517.25 4521.35009765625 4522.7001953125 4522.02978515625 4519.91015625 4515.93017578125 4515.830078125 4520.7001953125 4520.68994140625 4514.91015625 4513.35986328125 4508.75 4515.6298828125 4523.83984375
          4530.41015625 4540.02001953125 4551.43994140625 4562.64990234375 4565.0498046875 4563.080078125 4283.81982421875 4279.9599609375 4273.259765625 4261.85009765625 4264.7001953125 4281.240234375 4311.080078125 4331.580078125 4349.419921875 4369.81982421875 4382.64013671875 4396.6298828125 4410.85986328125 4416.93994140625
          4416.72998046875 4416.89013671875 4425.0400390625 4431.81005859375 4431.2998046875 4426.7900390625 4419.33984375 4433.6201171875 4446.8798828125 4462.72021484375 4478.22021484375 4495.2001953125 4509.9599609375 4521.77978515625 4530.669921875 4536.68017578125 4539.83984375 4540.60986328125 4539.5498046875 4536.6298828125
          4532.419921875 4538.4501953125 4540.60986328125 4540.2998046875 4539.72998046875 4539.990234375 4544.169921875 4549.77001953125 4555.14990234375 4561.080078125 4564.419921875 4565.31005859375 4567.1298828125 4284.5400390625 4281.1201171875 4274.10009765625 4264.56005859375 4253.6298828125 4256.60986328125 4280.08984375
          4311.27978515625 4317.419921875 4331.3701171875 4350.18994140625 4375.72021484375 4392.919921875 4404.6298828125 4410.1201171875 4410.31005859375 4411.22998046875 4412.169921875 4421.009765625 4421.91015625 4418.08984375 4413.85009765625 4431.8798828125 4450.97998046875 4469.919921875 4487.66015625 4504.259765625
          4519.919921875 4532.2998046875 4542.5 4550.25 4555.009765625 4557.0400390625 4556.81005859375 4554.93994140625 4551.919921875 4550.2998046875 4552.0498046875 4560.7001953125 4561.31005859375 4563.509765625 4567.18994140625 4571.31982421875 4575.25 4578.58984375 4580.52001953125 4581.35009765625
          4581.97998046875 4283.7099609375 4280.93994140625 4274.68994140625 4265.02001953125 4253.0400390625 4242.43994140625 4247.919921875 4284.18994140625 4301.18994140625 4315.33984375 4339.81982421875 4353.009765625 4364.81005859375 4385.72021484375 4399.18994140625 4402.0498046875 4405.5400390625 4402.14990234375 4410.740234375
          4410.75 4412.27001953125 4410.64990234375 4405.64013671875 4425.08984375 4449.7001953125 4472.509765625 4492.8798828125 4511.47021484375 4527.43017578125 4540.85986328125 4552.22998046875 4561.2001953125 4567.41015625 4570.5498046875 4571.2900390625 4569.7001953125 4566.10009765625 4558.52978515625 4562.10009765625
          4571.43017578125 4576.72998046875 4581.47021484375 4585.81005859375 4589.35009765625 4592.10009765625 4594.0498046875 4594.8701171875 4594.72998046875 4594.22998046875 4281.35986328125 4279.009765625 4273.31005859375 4264.93994140625 4252.509765625 4236.509765625 4230.47021484375 4231.740234375 4269.5498046875 4295.18017578125
          4311.0498046875 4336.64013671875 4354.509765625 4362.31982421875 4381.43994140625 4394.56982421875 4395.27978515625 4398.64013671875 4397.68994140625 4398.27978515625 4401.7998046875 4401.0498046875 4396.89990234375 4396.8798828125 4411.47998046875 4444.02978515625 4471.080078125 4495.419921875 4515.66015625 4532.68017578125
          4547.22998046875 4559.31005859375 4569.85009765625 4577.9599609375 4581.5498046875 4582.8701171875 4582.1201171875 4579.85009765625 4577.2900390625 4575.259765625 4574.52978515625 4588.33984375 4596.18994140625 4600.60009765625 4603.47998046875 4605.43017578125 4606.330078125 4605.97021484375 4604.8798828125 4602.08984375
          4277.2001953125 4274.85986328125 4269.56005859375 4262.08984375 4251.9501953125 4238.18994140625 4223.9501953125 4218.16015625 4228.8798828125 4267.740234375 4296.759765625 4320.35986328125 4335.85009765625 4347.5498046875 4359.14990234375 4377.490234375 4391.7900390625 4392.43994140625 4392.5498046875 4393.330078125
          4384.990234375 4384.580078125 4387.97998046875 4386.759765625 4391.2998046875 4403.10009765625 4438.3701171875 4468.27978515625 4495.669921875 4517.240234375 4535.52978515625 4551.240234375 4564.68017578125 4576.47998046875 4584.830078125 4589.5400390625 4591.72021484375 4591.85986328125 4589.8798828125 4584.85986328125
          4582.22021484375 4591.60009765625 4602.81005859375 4610.10009765625 4613.56982421875 4614.669921875 4615.509765625 4615.35986328125 4612.990234375 4612.1201171875 4273.16015625 4270.43994140625 4263.7900390625 4255.759765625 4246.9501953125 4235.77978515625 4219.25 4198.64990234375 4202.6201171875 4230.39013671875
          4265.89013671875 4296.4501953125 4321.43994140625 4324.740234375 4345.47998046875 4358.72021484375 4373.31982421875 4385.27001953125 4391.47998046875 4383.0400390625 4382.6298828125 4380.0 4371.759765625 4374.68994140625 4382.509765625 4383.83984375 4392.9599609375 4433.080078125 4465.35986328125 4494.66015625
          4517.81982421875 4536.85009765625 4553.02001953125 4567.7998046875 4579.81982421875 4589.06005859375 4595.06982421875 4598.3701171875 4599.5 4599.1298828125 4598.27001953125 4599.41015625 4606.52001953125 4615.77001953125 4622.85986328125 4625.56005859375 4623.080078125 4622.31982421875 4622.2001953125 4266.02001953125
          4259.3798828125 4249.10009765625 4238.18017578125 4226.6201171875 4214.60009765625 4202.330078125 4186.68994140625 4194.56982421875 4220.68994140625 4261.4501953125 4293.4501953125 4316.1298828125 4322.240234375 4341.3798828125 4351.580078125 4367.43017578125 4377.64013671875 4382.77001953125 4381.56982421875 4377.60009765625
          4367.39990234375 4361.5400390625 4368.52978515625 4375.990234375 4380.509765625 4392.83984375 4432.14990234375 4462.8701171875 4492.990234375 4517.06982421875 4537.35986328125 4553.9599609375 4568.4501953125 4580.2998046875 4589.8701171875 4598.25 4602.31005859375 4604.2099609375 4604.68994140625 4605.580078125
          4608.9599609375 4616.2001953125 4627.10009765625 4633.580078125 4636.75 4257.2099609375 4246.06005859375 4230.990234375 4213.68994140625 4200.06005859375 4191.490234375 4184.83984375 4184.39013671875 4192.89013671875 4204.009765625 4257.72998046875 4291.97021484375 4308.89990234375 4314.89013671875 4332.60986328125
          4349.27978515625 4361.66015625 4370.10986328125 4374.52001953125 4375.35009765625 4362.3798828125 4357.85009765625 4358.7001953125 4366.06982421875 4370.89013671875 4375.7099609375 4395.68017578125 4435.35009765625 4457.7001953125 4490.85009765625 4515.97021484375 4536.64013671875 4553.2099609375 4567.2900390625 4578.39990234375
          4587.18017578125 4637.669921875 4642.72021484375 4645.1201171875 4271.14990234375 4262.990234375 4250.830078125 4232.06005859375 4211.22021484375 4182.5 4164.6201171875 4161.56005859375 4163.33984375 4180.77978515625 4203.06982421875 4215.10009765625 4252.22021484375 4282.68994140625 4305.08984375 4313.81005859375
          4329.91015625 4343.52978515625 4354.3798828125 4361.60986328125 4364.4501953125 4361.580078125 4348.89013671875 4350.56005859375 4357.81005859375 4365.16015625 4369.68994140625 4381.81982421875 4405.22021484375 4432.25 4457.3701171875 4490.60986328125 4515.6201171875 4535.56982421875 4551.02001953125 4564.240234375
          4574.25 4649.5498046875 4650.43994140625 4289.7900390625 4283.169921875 4271.8701171875 4258.52001953125 4240.64990234375 4218.64990234375 4193.97998046875 4162.009765625 4152.18017578125 4156.16015625 4170.240234375 4187.10986328125 4204.9501953125 4222.60986328125 4247.06982421875 4269.7001953125 4292.02978515625
          4309.39990234375 4323.0498046875 4335.56982421875 4345.259765625 4352.0 4354.5400390625 4352.5400390625 4346.43017578125 4347.7099609375 4357.08984375 4367.43017578125 4374.3798828125 4383.25 4410.66015625 4443.43017578125 4469.7998046875 4494.7998046875 4516.27001953125 4534.08984375 4547.22021484375
          4558.919921875 4297.77978515625 4294.830078125 4289.22998046875 4280.580078125 4266.89990234375 4249.5400390625 4229.7001953125 4206.10009765625 4180.3701171875 4152.97998046875 4143.8798828125 4155.81982421875 4171.16015625 4186.169921875 4200.91015625 4217.14013671875 4237.97021484375 4250.14013671875 4277.14013671875
          4297.06982421875 4312.31005859375 4324.89013671875 4334.14013671875 4341.8701171875 4344.009765625 4342.35009765625 4343.77001953125 4351.9599609375 4359.39013671875 4369.2099609375 4386.35986328125 4401.919921875 4426.259765625 4456.06005859375 4476.7998046875 4498.85009765625 4517.18994140625 4532.10986328125 4541.60986328125
          4298.169921875 4295.83984375 4293.66015625 4290.009765625 4284.1201171875 4274.52978515625 4258.7099609375 4239.830078125 4217.6298828125 4192.5400390625 4163.68017578125 4141.7998046875 4141.68017578125 4150.419921875 4165.509765625 4178.9599609375 4188.60009765625 4197.7998046875 4213.02978515625 4241.77978515625
          4264.080078125 4282.509765625 4298.1298828125 4311.6201171875 4319.31982421875 4332.2099609375 4332.5400390625 4333.330078125 4351.669921875 4365.66015625 4375.10986328125 4394.35986328125 4411.18017578125 4427.77001953125 4446.97021484375 4467.47998046875 4485.52001953125 4502.81005859375 4518.08984375 4530.5400390625
          4539.169921875 4293.60986328125 4290.35009765625 4286.2001953125 4282.16015625 4275.5 4264.740234375 4249.10009765625 4228.919921875 4205.9599609375 4177.4599609375 4154.27978515625 4126.27978515625 4122.58984375 4130.89990234375 4153.56982421875 4166.77001953125 4167.52978515625 4168.91015625 4167.64990234375
          4220.1201171875 4250.7099609375 4264.60986328125 4279.93017578125 4297.740234375 4291.1298828125 4321.18994140625 4334.009765625 4358.39013671875 4371.10009765625 4385.22021484375 4400.990234375 4416.5400390625 4431.31005859375 4446.16015625 4461.02001953125 4476.64990234375 4491.22021484375 4504.6201171875 4517.8701171875
          4527.02001953125 4268.490234375 4270.919921875 4273.83984375 4277.080078125 4279.509765625 4281.830078125 4284.81005859375 4281.10986328125 4273.64990234375 4272.259765625 4265.2900390625 4254.330078125 4237.77978515625 4216.7900390625 4194.2001953125 4169.580078125 4143.39013671875 4111.60986328125 4076.419921875
          4091.35009765625 4136.419921875 4155.8798828125 4183.02001953125 4200.0 4216.83984375 4217.85986328125 4244.259765625 4248.43994140625 4252.66015625 4303.08984375 4329.009765625 4343.43994140625 4361.89013671875 4379.39013671875 4392.56005859375 4411.10986328125 4422.43994140625 4433.8798828125 4446.0
          4456.10009765625 4469.259765625 4482.10009765625 4494.009765625 4505.009765625 4514.5400390625 4252.4599609375 4253.35986328125 4260.58984375 4264.91015625 4267.669921875 4270.509765625 4272.68017578125 4274.06982421875 4274.4501953125 4270.27001953125 4262.35009765625 4261.3798828125 4253.56982421875 4242.009765625
          4224.52978515625 4202.8798828125 4178.89013671875 4152.60986328125 4123.5498046875 4088.7900390625 4072.739990234375 4109.240234375 4148.31982421875 4179.31982421875 4205.419921875 4228.0400390625 4245.4599609375 4257.83984375 4274.740234375 4288.1298828125 4303.490234375 4331.2001953125 4354.02978515625 4373.77001953125
          4388.2099609375 4395.8701171875 4412.56982421875 4426.580078125 4438.240234375 4445.56005859375 4454.10986328125 4463.8701171875 4474.58984375 4485.18017578125 4494.3701171875 4502.759765625 4246.68994140625 4245.85986328125 4241.4599609375 4250.419921875 4254.72998046875 4256.27001953125 4258.490234375 4260.39990234375
          4261.2998046875 4260.39990234375 4256.89013671875 4249.85009765625 4248.89013671875 4240.419921875 4227.47021484375 4209.22021484375 4186.93994140625 4160.43017578125 4130.6298828125 4098.25 4072.550048828125 4068.889892578125 4117.52978515625 4163.52978515625 4196.9501953125 4224.759765625 4248.72998046875 4269.56005859375
          4287.14990234375 4303.91015625 4319.93994140625 4336.5 4356.6201171875 4375.93994140625 4393.83984375 4403.7998046875 4415.83984375 4418.169921875 4433.2099609375 4443.06982421875 4447.6201171875 4455.7998046875 4466.47998046875 4475.56005859375 4485.1201171875 4491.919921875 4243.27978515625 4241.81982421875
          4237.3701171875 4229.990234375 4238.169921875 4241.4599609375 4239.330078125 4243.5400390625 4245.97998046875 4246.3701171875 4244.169921875 4242.39013671875 4238.06005859375 4235.97021484375 4225.77001953125 4211.10986328125 4191.16015625 4168.52001953125 4137.3701171875 4098.93994140625 4056.239990234375 4058.22998046875
          4066.699951171875 4129.2099609375 4175.41015625 4211.68017578125 4242.64990234375 4268.31982421875 4291.14013671875 4311.14013671875 4328.10009765625 4344.27001953125 4360.4599609375 4376.9599609375 4392.9599609375 4407.9501953125 4420.35009765625 4427.419921875 4434.93994140625 4440.25 4444.60986328125 4447.759765625
          4453.56982421875 4466.68994140625 4471.509765625 4482.93017578125 4489.919921875 4242.83984375 4240.68994140625 4238.56005859375 4233.91015625 4226.52978515625 4215.7001953125 4224.52001953125 4227.47021484375 4228.22021484375 4224.4599609375 4228.14013671875 4229.3701171875 4224.68017578125 4225.509765625 4224.2001953125
          4220.18017578125 4209.02001953125 4192.419921875 4170.5400390625 4147.58984375 4114.3798828125 4066.860107421875 4042.530029296875 4054.60009765625 4100.7900390625 4150.2099609375 4191.91015625 4226.93994140625 4258.5498046875 4284.56005859375 4308.60009765625 4328.97021484375 4346.6201171875 4362.85009765625 4378.10009765625
          4392.6298828125 4406.4501953125 4419.18017578125 4429.81005859375 4437.7099609375 4443.89013671875 4444.18017578125 4446.02001953125 4449.8798828125 4453.4599609375 4462.64990234375 4469.39013671875 4480.35009765625 4244.33984375 4241.509765625 4238.47998046875 4234.169921875 4229.56982421875 4223.0 4213.759765625