<VTKFile type="UnstructuredGrid" version="1.0" byte_order="LittleEndian" header_type="UInt64">
  <UnstructuredGrid>
    <Piece NumberOfPoints="86982" NumberOfCells="929">
      <CellData Scalars="Model" >
        <DataArray type="Float64" Name="DrnCells" format="ascii">
          2 2 2 2 2 2 2 2 2 2 2 2 2 2 2 2 2 2 2 2 2
          2 2 2 2 2 2 2 2 2 2 2 2 2 2 2 2 2 2 2 2
          2 2 2 2 2 2 2 2 2 2 2 2 2 2 2 2 2 2 2 2
          2 2 2 2 2 2 2 2 2 2 2 2 2 2 2 2 2 2 2 2
          2 2 2 2 2 2 2 2 2 2 2 2 2 2 2 2 2 2 2 2
          2 2 2 2 2 2 2 2 2 2 2 2 2 2 2 2 2 2 2 2
          2 2 2 2 2 2 2 2 2 2 2 2 2 2 2 2 2 2 2 2
          2 2 2 2 2 2 2 2 2 2 2 2 2 2 2 2 2 2 2 2
          2 2 2 2 2 2 2 2 2 2 2 2 2 2 2 2 2 2 2 2
          2 2 2 2 2 2 2 2 2 2 2 2 2 2 2 2 2 2 2 2
          2 2 2 2 2 2 2 2 2 2 2 2 2 2 2 2 2 2 2 2
          2 2 2 2 2 2 2 2 2 2 2 2 2 2 2 2 2 2 2 2
          2 2 2 2 2 2 2 2 2 2 2 2 2 2 2 2 2 2 2 2
          2 2 2 2 2 2 2 2 2 2 2 2 2 2 2 2 2 2 2 2
          2 2 2 2 2 2 2 2 2 2 2 2 2 2 2 2 2 2 2 2
          2 2 2 2 2 2 2 2 2 2 2 2 2 2 2 2 2 2 2 2
          2 2 2 2 2 2 2 2 2 2 2 2 2 2 2 2 2 2 2 2
          2 2 2 2 2 2 2 2 2 2 2 2 2 2 2 2 2 2 2 2
          2 2 2 2 2 2 2 2 2 2 2 2 2 2 2 2 2 2 2 2
          2 2 2 2 2 2 2 2 2 2 2 2 2 2 2 2 2 2 2 2
          2 2 2 2 2 2 2 2 2 2 2 2 2 2 2 2 2 2 2 2
          2 2 2 2 2 2 2 2 2 2 2 2 2 2 2 2 2 2 2 2
          2 2 2 2 2 2 2 2 2 2 2 2 2 2 2 2 2 2 2 2
          2 2 2 2 2 2 2 2 2 2 2 2 2 2 2 2 2 2 2 2
          2 2 2 2 2 2 2 2 2 2 2 2 2 2 2 2 2 2 2 2
          2 2 2 2 2 2 2 2 2 2 2 2 2 2 2 2 2 2 2 2
          2 2 2 2 2 2 2 2 2 2 2 2 2 2 2 2 2 2 2 2
          2 2 2 2 2 2 2 2 2 2 2 2 2 2 2 2 2 2 2 2
          2 2 2 2 2 2 2 2 2 2 2 2 2 2 2 2 2 2 2 2
          2 2 2 2 2 2 2 2 2 2 2 2 2 2 2 2 2 2 2 2
          2 2 2 2 2 2 2 2 2 2 2 2 2 2 2 2 2 2 2 2
          2 2 2 2 2 2 2 2 2 2 2 2 2 2 2 2 2 2 2 2
          2 2 2 2 2 2 2 2 2 2 2 2 2 2 2 2 2 2 2 2
          2 2 2 2 2 2 2 2 2 2 2 2 2 2 2 2 2 2 2 2
          2 2 2 2 2 2 2 2 2 2 2 2 2 2 2 2 2 2 2 2
          2 2 2 2 2 2 2 2 2 2 2 2 2 2 2 2 2 2 2 2
          2 2 2 2 2 2 2 2 2 2 2 2 2 2 2 2 2 2 2 2
          2 2 2 2 2 2 2 2 2 2 2 2 2 2 2 2 2 2 2 2
          2 2 2 2 2 2 2 2 2 2 2 2 2 2 2 2 2 2 2 2
          2 2 2 2 2 2 2 2 2 2 2 2 2 2 2 2 2 2 2 2
          2 2 2 2 2 2 2 2 2 2 2 2 2 2 2 2 2 2 2 2
          2 2 2 2 2 2 2 2 2 2 2 2 2 2 2 2 2 2 2 2
          2 2 2 2 2 2 2 2 2 2 2 2 2 2 2 2 2 2 2 2
          2 2 2 2 2 2 2 2 2 2 2 2 2 2 2 2 2 2 2 2
          2 2 2 2 2 2 2 2 2 2 2 2 2 2 2 2 2 2 2 2
          2 2 2 2 2 2 2 2 2 2 2 2 2 2 2 2 2 2 2 2
          2 2 2 2 2 2 2 2 
        </DataArray>
      </CellData>
      <Points>
        <DataArray type="Float64" Name="Points" NumberOfComponents="3" format="ascii">
          0.00 26400.00 4344.00 200.00 26400.00 4329.00 400.00 26400.00 4299.00 600.00 26400.00 4337.00 800.00 26400.00 4363.00 
          1000.00 26400.00 4389.00 1200.00 26400.00 4399.00 1400.00 26400.00 4399.00 1600.00 26400.00 4394.00 
          1800.00 26400.00 4386.00 2000.00 26400.00 4392.00 2200.00 26400.00 4388.00 2400.00 26400.00 4373.00 
          2600.00 26400.00 4365.00 2800.00 26400.00 4373.00 3000.00 26400.00 4365.00 3200.00 26400.00 4375.00 
          3400.00 26400.00 4371.00 3600.00 26400.00 4394.00 3800.00 26400.00 4413.00 4000.00 26400.00 4416.00 
          4200.00 26400.00 4413.00 4400.00 26400.00 4401.00 4600.00 26400.00 4385.00 4800.00 26400.00 4369.00 
          5000.00 26400.00 4368.00 5200.00 26400.00 4378.00 5400.00 26400.00 4390.00 5600.00 26400.00 4402.00 
          5800.00 26400.00 4408.00 6000.00 26400.00 4388.00 6200.00 26400.00 4382.00 6400.00 26400.00 4379.00 
          6600.00 26400.00 4390.00 6800.00 26400.00 4385.00 7000.00 26400.00 4404.00 7200.00 26400.00 4419.00 
          7400.00 26400.00 4431.00 7600.00 26400.00 4431.00 7800.00 26400.00 4426.00 8000.00 26400.00 4402.00 
          8200.00 26400.00 4406.00 8400.00 26400.00 4407.00 8600.00 26400.00 4412.00 8800.00 26400.00 4401.00 
          9000.00 26400.00 4402.00 9200.00 26400.00 4414.00 9400.00 26400.00 4413.00 9600.00 26400.00 4426.00 
          9800.00 26400.00 4437.00 10000.00 26400.00 4457.00 10200.00 26400.00 4473.00 10400.00 26400.00 4510.00 
          10600.00 26400.00 4532.00 10800.00 26400.00 4550.00 11000.00 26400.00 4559.00 11200.00 26400.00 4568.00 
          11400.00 26400.00 4583.00 11600.00 26400.00 4612.00 11800.00 26400.00 4622.00 12000.00 26400.00 4579.00 
          12200.00 26400.00 4547.00 12400.00 26400.00 4527.00 12600.00 26400.00 4506.00 12800.00 26400.00 4490.00 
          13000.00 26400.00 4488.00 13200.00 26400.00 4473.00 13400.00 26400.00 4480.00 13600.00 26400.00 4469.00 
          13800.00 26400.00 4468.00 14000.00 26400.00 4474.00 14200.00 26400.00 4485.00 14400.00 26400.00 4495.00 
          14600.00 26400.00 4503.00 14800.00 26400.00 4520.00 15000.00 26400.00 4527.00 15200.00 26400.00 4521.00 
          15400.00 26400.00 4521.00 15600.00 26400.00 4514.00 15800.00 26400.00 4513.00 16000.00 26400.00 4514.00 
          16200.00 26400.00 4514.00 16400.00 26400.00 4513.00 16600.00 26400.00 4512.00 16800.00 26400.00 4521.00 
          17000.00 26400.00 4559.00 17200.00 26400.00 4614.00 17400.00 26400.00 4661.00 17600.00 26400.00 4699.00 
          17800.00 26400.00 4718.00 18000.00 26400.00 4727.00 18200.00 26400.00 4711.00 18400.00 26400.00 4677.00 
          18600.00 26400.00 4658.00 18800.00 26400.00 4649.00 19000.00 26400.00 4635.00 19200.00 26400.00 4589.00 
          19400.00 26400.00 4561.00 19600.00 26400.00 4520.00 19800.00 26400.00 4501.00 20000.00 26400.00 4487.00 
          20200.00 26400.00 4473.00 20400.00 26400.00 4472.00 20600.00 26400.00 4480.00 20800.00 26400.00 4481.00 
          21000.00 26400.00 4484.00 21200.00 26400.00 4538.00 21400.00 26400.00 4611.00 21600.00 26400.00 4611.00 
          0.00 26200.00 4365.00 200.00 26200.00 4338.25 400.00 26200.00 4313.00 600.00 26200.00 4322.75 
          800.00 26200.00 4355.25 1000.00 26200.00 4383.50 1200.00 26200.00 4403.00 1400.00 26200.00 4404.00 
          1600.00 26200.00 4398.75 1800.00 26200.00 4392.25 2000.00 26200.00 4388.75 2200.00 26200.00 4388.25 
          2400.00 26200.00 4380.75 2600.00 26200.00 4371.75 2800.00 26200.00 4369.75 3000.00 26200.00 4367.25 
          3200.00 26200.00 4367.75 3400.00 26200.00 4374.50 3600.00 26200.00 4386.75 3800.00 26200.00 4410.75 
          4000.00 26200.00 4428.25 4200.00 26200.00 4433.25 4400.00 26200.00 4422.50 4600.00 26200.00 4401.25 
          4800.00 26200.00 4385.50 5000.00 26200.00 4376.25 5200.00 26200.00 4376.50 5400.00 26200.00 4386.75 
          5600.00 26200.00 4400.75 5800.00 26200.00 4411.75 6000.00 26200.00 4405.50 6200.00 26200.00 4391.75 
          6400.00 26200.00 4388.50 6600.00 26200.00 4389.50 6800.00 26200.00 4389.25 7000.00 26200.00 4396.75 
          7200.00 26200.00 4411.00 7400.00 26200.00 4422.25 7600.00 26200.00 4428.50 7800.00 26200.00 4428.25 
          8000.00 26200.00 4418.00 8200.00 26200.00 4406.50 8400.00 26200.00 4404.75 8600.00 26200.00 4406.00 
          8800.00 26200.00 4408.00 9000.00 26200.00 4407.25 9200.00 26200.00 4407.50 9400.00 26200.00 4411.00 
          9600.00 26200.00 4419.25 9800.00 26200.00 4432.75 10000.00 26200.00 4450.00 10200.00 26200.00 4468.25 
          10400.00 26200.00 4489.25 10600.00 26200.00 4513.75 10800.00 26200.00 4535.75 11000.00 26200.00 4555.75 
          11200.00 26200.00 4569.25 11400.00 26200.00 4583.00 11600.00 26200.00 4604.25 11800.00 26200.00 4612.75 
          12000.00 26200.00 4594.25 12200.00 26200.00 4565.25 12400.00 26200.00 4537.00 12600.00 26200.00 4510.00 
          12800.00 26200.00 4492.75 13000.00 26200.00 4484.25 13200.00 26200.00 4478.00 13400.00 26200.00 4478.00 
          13600.00 26200.00 4476.50 13800.00 26200.00 4470.25 14000.00 26200.00 4469.75 14200.00 26200.00 4480.50 
          14400.00 26200.00 4498.00 14600.00 26200.00 4510.75 14800.00 26200.00 4520.00 15000.00 26200.00 4526.00 
          15200.00 26200.00 4525.00 15400.00 26200.00 4521.00 15600.00 26200.00 4516.50 15800.00 26200.00 4513.25 
          16000.00 26200.00 4512.25 16200.00 26200.00 4512.50 16400.00 26200.00 4513.50 16600.00 26200.00 4513.00 
          16800.00 26200.00 4516.00 17000.00 26200.00 4533.00 17200.00 26200.00 4573.75 17400.00 26200.00 4625.50 
          17600.00 26200.00 4671.25 17800.00 26200.00 4703.00 18000.00 26200.00 4715.00 18200.00 26200.00 4718.75 
          18400.00 26200.00 4703.50 18600.00 26200.00 4678.00 18800.00 26200.00 4665.00 19000.00 26200.00 4649.25 
          19200.00 26200.00 4614.50 19400.00 26200.00 4571.75 19600.00 26200.00 4532.75 19800.00 26200.00 4508.25 
          20000.00 26200.00 4494.00 20200.00 26200.00 4479.50 20400.00 26200.00 4472.25 20600.00 26200.00 4478.00 
          20800.00 26200.00 4485.25 21000.00 26200.00 4485.75 21200.00 26200.00 4510.00 21400.00 26200.00 4559.75 
          21600.00 26200.00 4562.00 0.00 26000.00 4384.00 200.00 26000.00 4349.00 400.00 26000.00 4320.75 
          600.00 26000.00 4334.50 800.00 26000.00 4367.25 1000.00 26000.00 4398.75 1200.00 26000.00 4415.25 
          1400.00 26000.00 4409.00 1600.00 26000.00 4399.50 1800.00 26000.00 4393.75 2000.00 26000.00 4388.25 
          2200.00 26000.00 4386.25 2400.00 26000.00 4381.25 2600.00 26000.00 4372.75 2800.00 26000.00 4368.00 
          3000.00 26000.00 4367.25 3200.00 26000.00 4367.00 3400.00 26000.00 4372.75 3600.00 26000.00 4390.75 
          3800.00 26000.00 4418.75 4000.00 26000.00 4450.50 4200.00 26000.00 4469.75 4400.00 26000.00 4457.00 
          4600.00 26000.00 4428.75 4800.00 26000.00 4411.00 5000.00 26000.00 4395.75 5200.00 26000.00 4383.25 
          5400.00 26000.00 4386.75 5600.00 26000.00 4401.25 5800.00 26000.00 4415.00 6000.00 26000.00 4415.00 
          6200.00 26000.00 4405.25 6400.00 26000.00 4405.00 6600.00 26000.00 4405.50 6800.00 26000.00 4399.25 
          7000.00 26000.00 4399.25 7200.00 26000.00 4408.50 7400.00 26000.00 4419.00 7600.00 26000.00 4425.00 
          7800.00 26000.00 4427.75 8000.00 26000.00 4423.50 8200.00 26000.00 4414.00 8400.00 26000.00 4409.50 
          8600.00 26000.00 4405.25 8800.00 26000.00 4407.25 9000.00 26000.00 4411.50 9200.00 26000.00 4406.75 
          9400.00 26000.00 4408.25 9600.00 26000.00 4419.50 9800.00 26000.00 4432.25 10000.00 26000.00 4449.00 
          10200.00 26000.00 4466.75 10400.00 26000.00 4485.00 10600.00 26000.00 4512.75 10800.00 26000.00 4539.00 
          11000.00 26000.00 4557.25 11200.00 26000.00 4579.50 11400.00 26000.00 4606.00 11600.00 26000.00 4619.50 
          11800.00 26000.00 4606.50 12000.00 26000.00 4584.50 12200.00 26000.00 4562.50 12400.00 26000.00 4530.75 
          12600.00 26000.00 4502.25 12800.00 26000.00 4485.75 13000.00 26000.00 4476.50 13200.00 26000.00 4475.25 
          13400.00 26000.00 4477.00 13600.00 26000.00 4476.00 13800.00 26000.00 4472.00 14000.00 26000.00 4471.50 
          14200.00 26000.00 4489.00 14400.00 26000.00 4519.75 14600.00 26000.00 4534.00 14800.00 26000.00 4531.75 
          15000.00 26000.00 4530.00 15200.00 26000.00 4525.25 15400.00 26000.00 4519.00 15600.00 26000.00 4515.00 
          15800.00 26000.00 4512.75 16000.00 26000.00 4512.25 16200.00 26000.00 4512.25 16400.00 26000.00 4513.75 
          16600.00 26000.00 4515.00 16800.00 26000.00 4518.00 17000.00 26000.00 4526.75 17200.00 26000.00 4551.00 
          17400.00 26000.00 4592.50 17600.00 26000.00 4635.00 17800.00 26000.00 4665.75 18000.00 26000.00 4682.75 
          18200.00 26000.00 4697.75 18400.00 26000.00 4706.50 18600.00 26000.00 4697.50 18800.00 26000.00 4681.75 
          19000.00 26000.00 4652.50 19200.00 26000.00 4602.25 19400.00 26000.00 4552.50 19600.00 26000.00 4513.50 
          19800.00 26000.00 4495.00 20000.00 26000.00 4487.75 20200.00 26000.00 4479.00 20400.00 26000.00 4480.75 
          20600.00 26000.00 4496.50 20800.00 26000.00 4511.00 21000.00 26000.00 4522.75 21200.00 26000.00 4534.00 
          21400.00 26000.00 4545.50 21600.00 26000.00 4546.00 0.00 25800.00 4398.00 200.00 25800.00 4365.25 
          400.00 25800.00 4336.25 600.00 25800.00 4348.75 800.00 25800.00 4380.25 1000.00 25800.00 4406.00 
          1200.00 25800.00 4415.50 1400.00 25800.00 4407.75 1600.00 25800.00 4397.50 1800.00 25800.00 4391.25 
          2000.00 25800.00 4386.25 2200.00 25800.00 4384.25 2400.00 25800.00 4379.75 2600.00 25800.00 4370.75 
          2800.00 25800.00 4366.75 3000.00 25800.00 4368.25 3200.00 25800.00 4369.50 3400.00 25800.00 4373.50 
          3600.00 25800.00 4389.50 3800.00 25800.00 4419.75 4000.00 25800.00 4457.25 4200.00 25800.00 4485.75 
          4400.00 25800.00 4481.75 4600.00 25800.00 4458.00 4800.00 25800.00 4442.25 5000.00 25800.00 4421.00 
          5200.00 25800.00 4400.00 5400.00 25800.00 4393.25 5600.00 25800.00 4398.25 5800.00 25800.00 4410.00 
          6000.00 25800.00 4415.25 6200.00 25800.00 4418.00 6400.00 25800.00 4423.25 6600.00 25800.00 4426.75 
          6800.00 25800.00 4418.50 7000.00 25800.00 4410.00 7200.00 25800.00 4415.00 7400.00 25800.00 4422.25 
          7600.00 25800.00 4426.00 7800.00 25800.00 4428.75 8000.00 25800.00 4428.00 8200.00 25800.00 4421.75 
          8400.00 25800.00 4423.00 8600.00 25800.00 4418.50 8800.00 25800.00 4408.75 9000.00 25800.00 4407.50 
          9200.00 25800.00 4406.00 9400.00 25800.00 4410.00 9600.00 25800.00 4419.25 9800.00 25800.00 4429.00 
          10000.00 25800.00 4447.50 10200.00 25800.00 4469.50 10400.00 25800.00 4488.50 10600.00 25800.00 4520.25 
          10800.00 25800.00 4548.75 11000.00 25800.00 4559.50 11200.00 25800.00 4581.50 11400.00 25800.00 4619.25 
          11600.00 25800.00 4632.00 11800.00 25800.00 4609.25 12000.00 25800.00 4580.50 12200.00 25800.00 4555.00 
          12400.00 25800.00 4523.00 12600.00 25800.00 4497.50 12800.00 25800.00 4482.25 13000.00 25800.00 4474.75 
          13200.00 25800.00 4474.00 13400.00 25800.00 4473.00 13600.00 25800.00 4473.75 13800.00 25800.00 4476.00 
          14000.00 25800.00 4490.50 14200.00 25800.00 4526.50 14400.00 25800.00 4562.75 14600.00 25800.00 4559.00 
          14800.00 25800.00 4537.25 15000.00 25800.00 4531.25 15200.00 25800.00 4524.50 15400.00 25800.00 4516.25 
          15600.00 25800.00 4512.75 15800.00 25800.00 4509.50 16000.00 25800.00 4509.25 16200.00 25800.00 4508.25 
          16400.00 25800.00 4509.50 16600.00 25800.00 4514.00 16800.00 25800.00 4516.25 17000.00 25800.00 4520.75 
          17200.00 25800.00 4532.75 17400.00 25800.00 4560.50 17600.00 25800.00 4595.50 17800.00 25800.00 4624.50 
          18000.00 25800.00 4648.00 18200.00 25800.00 4667.00 18400.00 25800.00 4694.00 18600.00 25800.00 4710.25 
          18800.00 25800.00 4694.00 19000.00 25800.00 4645.00 19200.00 25800.00 4577.50 19400.00 25800.00 4526.25 
          19600.00 25800.00 4495.25 19800.00 25800.00 4481.25 20000.00 25800.00 4479.00 20200.00 25800.00 4477.75 
          20400.00 25800.00 4491.25 20600.00 25800.00 4528.50 20800.00 25800.00 4559.75 21000.00 25800.00 4576.25 
          21200.00 25800.00 4572.75 21400.00 25800.00 4555.75 21600.00 25800.00 4554.00 0.00 25600.00 4435.00 
          200.00 25600.00 4390.00 400.00 25600.00 4358.00 600.00 25600.00 4365.25 800.00 25600.00 4384.75 
          1000.00 25600.00 4404.25 1200.00 25600.00 4413.25 1400.00 25600.00 4400.50 1600.00 25600.00 4392.75 
          1800.00 25600.00 4389.00 2000.00 25600.00 4382.25 2200.00 25600.00 4377.75 2400.00 25600.00 4375.25 
          2600.00 25600.00 4371.25 2800.00 25600.00 4369.25 3000.00 25600.00 4366.75 3200.00 25600.00 4366.75 
          3400.00 25600.00 4376.75 3600.00 25600.00 4389.25 3800.00 25600.00 4410.00 4000.00 25600.00 4436.50 
          4200.00 25600.00 4471.75 4400.00 25600.00 4487.50 4600.00 25600.00 4475.50 4800.00 25600.00 4469.75 
          5000.00 25600.00 4449.25 5200.00 25600.00 4422.75 5400.00 25600.00 4409.50 5600.00 25600.00 4405.25 
          5800.00 25600.00 4409.25 6000.00 25600.00 4416.00 6200.00 25600.00 4424.75 6400.00 25600.00 4432.75 
          6600.00 25600.00 4438.25 6800.00 25600.00 4433.75 7000.00 25600.00 4431.75 7200.00 25600.00 4435.00 
          7400.00 25600.00 4434.25 7600.00 25600.00 4432.75 7800.00 25600.00 4437.25 8000.00 25600.00 4438.00 
          8200.00 25600.00 4430.25 8400.00 25600.00 4433.25 8600.00 25600.00 4435.75 8800.00 25600.00 4424.75 
          9000.00 25600.00 4409.75 9200.00 25600.00 4403.75 9400.00 25600.00 4407.00 9600.00 25600.00 4413.75 
          9800.00 25600.00 4422.25 10000.00 25600.00 4447.50 10200.00 25600.00 4479.50 10400.00 25600.00 4498.00 
          10600.00 25600.00 4526.00 10800.00 25600.00 4557.25 11000.00 25600.00 4575.00 11200.00 25600.00 4592.75 
          11400.00 25600.00 4625.00 11600.00 25600.00 4636.50 11800.00 25600.00 4610.00 12000.00 25600.00 4575.50 
          12200.00 25600.00 4546.50 12400.00 25600.00 4516.25 12600.00 25600.00 4492.00 12800.00 25600.00 4480.50 
          13000.00 25600.00 4474.75 13200.00 25600.00 4470.75 13400.00 25600.00 4471.75 13600.00 25600.00 4481.50 
          13800.00 25600.00 4495.50 14000.00 25600.00 4532.50 14200.00 25600.00 4594.75 14400.00 25600.00 4623.50 
          14600.00 25600.00 4584.50 14800.00 25600.00 4539.75 15000.00 25600.00 4525.00 15200.00 25600.00 4521.25 
          15400.00 25600.00 4516.25 15600.00 25600.00 4508.50 15800.00 25600.00 4501.50 16000.00 25600.00 4498.75 
          16200.00 25600.00 4499.25 16400.00 25600.00 4503.50 16600.00 25600.00 4508.00 16800.00 25600.00 4509.75 
          17000.00 25600.00 4514.75 17200.00 25600.00 4523.50 17400.00 25600.00 4542.50 17600.00 25600.00 4572.50 
          17800.00 25600.00 4603.00 18000.00 25600.00 4626.50 18200.00 25600.00 4652.00 18400.00 25600.00 4688.75 
          18600.00 25600.00 4716.75 18800.00 25600.00 4702.25 19000.00 25600.00 4637.75 19200.00 25600.00 4562.75 
          19400.00 25600.00 4512.25 19600.00 25600.00 4489.25 19800.00 25600.00 4483.25 20000.00 25600.00 4482.50 
          20200.00 25600.00 4486.50 20400.00 25600.00 4512.25 20600.00 25600.00 4571.00 20800.00 25600.00 4610.25 
          21000.00 25600.00 4613.00 21200.00 25600.00 4602.00 21400.00 25600.00 4577.50 21600.00 25600.00 4573.00 
          0.00 25400.00 4445.00 200.00 25400.00 4416.50 400.00 25400.00 4381.50 600.00 25400.00 4370.75 
          800.00 25400.00 4368.75 1000.00 25400.00 4382.00 1200.00 25400.00 4396.75 1400.00 25400.00 4387.25 
          1600.00 25400.00 4382.00 1800.00 25400.00 4383.00 2000.00 25400.00 4381.25 2200.00 25400.00 4379.25 
          2400.00 25400.00 4377.25 2600.00 25400.00 4371.25 2800.00 25400.00 4367.00 3000.00 25400.00 4367.25 
          3200.00 25400.00 4372.25 3400.00 25400.00 4382.00 3600.00 25400.00 4389.00 3800.00 25400.00 4398.75 
          4000.00 25400.00 4416.00 4200.00 25400.00 4455.75 4400.00 25400.00 4487.25 4600.00 25400.00 4491.75 
          4800.00 25400.00 4490.50 5000.00 25400.00 4470.00 5200.00 25400.00 4443.00 5400.00 25400.00 4426.00 
          5600.00 25400.00 4415.50 5800.00 25400.00 4419.75 6000.00 25400.00 4428.25 6200.00 25400.00 4429.75 
          6400.00 25400.00 4435.25 6600.00 25400.00 4445.25 6800.00 25400.00 4447.75 7000.00 25400.00 4447.25 
          7200.00 25400.00 4452.00 7400.00 25400.00 4452.00 7600.00 25400.00 4444.75 7800.00 25400.00 4454.50 
          8000.00 25400.00 4455.00 8200.00 25400.00 4443.25 8400.00 25400.00 4444.75 8600.00 25400.00 4449.50 
          8800.00 25400.00 4443.75 9000.00 25400.00 4420.75 9200.00 25400.00 4406.25 9400.00 25400.00 4405.25 
          9600.00 25400.00 4409.25 9800.00 25400.00 4416.00 10000.00 25400.00 4444.00 10200.00 25400.00 4478.00 
          10400.00 25400.00 4498.75 10600.00 25400.00 4529.75 10800.00 25400.00 4566.25 11000.00 25400.00 4592.25 
          11200.00 25400.00 4617.75 11400.00 25400.00 4641.25 11600.00 25400.00 4637.50 11800.00 25400.00 4608.50 
          12000.00 25400.00 4570.25 12200.00 25400.00 4538.00 12400.00 25400.00 4510.25 12600.00 25400.00 4488.50 
          12800.00 25400.00 4478.25 13000.00 25400.00 4474.25 13200.00 25400.00 4472.00 13400.00 25400.00 4475.50 
          13600.00 25400.00 4496.00 13800.00 25400.00 4530.25 14000.00 25400.00 4592.75 14200.00 25400.00 4663.00 
          14400.00 25400.00 4669.75 14600.00 25400.00 4603.25 14800.00 25400.00 4542.75 15000.00 25400.00 4524.00 
          15200.00 25400.00 4517.00 15400.00 25400.00 4509.75 15600.00 25400.00 4501.25 15800.00 25400.00 4493.50 
          16000.00 25400.00 4490.75 16200.00 25400.00 4494.00 16400.00 25400.00 4501.00 16600.00 25400.00 4505.50 
          16800.00 25400.00 4508.50 17000.00 25400.00 4516.00 17200.00 25400.00 4527.00 17400.00 25400.00 4542.00 
          17600.00 25400.00 4559.50 17800.00 25400.00 4579.75 18000.00 25400.00 4604.50 18200.00 25400.00 4638.00 
          18400.00 25400.00 4680.75 18600.00 25400.00 4717.00 18800.00 25400.00 4706.00 19000.00 25400.00 4637.25 
          19200.00 25400.00 4560.75 19400.00 25400.00 4509.00 19600.00 25400.00 4487.50 19800.00 25400.00 4481.75 
          20000.00 25400.00 4494.00 20200.00 25400.00 4523.00 20400.00 25400.00 4565.50 20600.00 25400.00 4624.75 
          20800.00 25400.00 4654.00 21000.00 25400.00 4649.75 21200.00 25400.00 4631.00 21400.00 25400.00 4597.75 
          21600.00 25400.00 4586.00 0.00 25200.00 4450.00 200.00 25200.00 4425.50 400.00 25200.00 4383.75 
          600.00 25200.00 4355.75 800.00 25200.00 4344.75 1000.00 25200.00 4351.75 1200.00 25200.00 4371.00 
          1400.00 25200.00 4373.50 1600.00 25200.00 4372.50 1800.00 25200.00 4376.75 2000.00 25200.00 4378.50 
          2200.00 25200.00 4382.00 2400.00 25200.00 4382.00 2600.00 25200.00 4374.25 2800.00 25200.00 4368.00 
          3000.00 25200.00 4368.75 3200.00 25200.00 4374.25 3400.00 25200.00 4381.25 3600.00 25200.00 4388.25 
          3800.00 25200.00 4398.25 4000.00 25200.00 4411.50 4200.00 25200.00 4443.75 4400.00 25200.00 4479.00 
          4600.00 25200.00 4504.75 4800.00 25200.00 4510.00 5000.00 25200.00 4483.50 5200.00 25200.00 4458.75 
          5400.00 25200.00 4441.75 5600.00 25200.00 4424.25 5800.00 25200.00 4429.75 6000.00 25200.00 4442.50 
          6200.00 25200.00 4440.25 6400.00 25200.00 4447.00 6600.00 25200.00 4467.50 6800.00 25200.00 4471.75 
          7000.00 25200.00 4464.50 7200.00 25200.00 4469.00 7400.00 25200.00 4471.25 7600.00 25200.00 4465.50 
          7800.00 25200.00 4477.25 8000.00 25200.00 4478.50 8200.00 25200.00 4466.50 8400.00 25200.00 4463.00 
          8600.00 25200.00 4463.25 8800.00 25200.00 4461.75 9000.00 25200.00 4442.25 9200.00 25200.00 4421.50 
          9400.00 25200.00 4413.50 9600.00 25200.00 4410.50 9800.00 25200.00 4414.00 10000.00 25200.00 4445.00 
          10200.00 25200.00 4478.50 10400.00 25200.00 4494.00 10600.00 25200.00 4524.25 10800.00 25200.00 4564.75 
          11000.00 25200.00 4594.00 11200.00 25200.00 4628.00 11400.00 25200.00 4641.50 11600.00 25200.00 4625.25 
          11800.00 25200.00 4598.00 12000.00 25200.00 4560.25 12200.00 25200.00 4532.00 12400.00 25200.00 4505.75 
          12600.00 25200.00 4482.25 12800.00 25200.00 4477.00 13000.00 25200.00 4480.25 13200.00 25200.00 4479.25 
          13400.00 25200.00 4486.50 13600.00 25200.00 4516.50 13800.00 25200.00 4563.00 14000.00 25200.00 4644.00 
          14200.00 25200.00 4697.25 14400.00 25200.00 4674.75 14600.00 25200.00 4609.25 14800.00 25200.00 4551.00 
          15000.00 25200.00 4529.00 15200.00 25200.00 4510.00 15400.00 25200.00 4497.00 15600.00 25200.00 4494.00 
          15800.00 25200.00 4489.25 16000.00 25200.00 4487.00 16200.00 25200.00 4490.25 16400.00 25200.00 4497.75 
          16600.00 25200.00 4506.25 16800.00 25200.00 4509.75 17000.00 25200.00 4515.50 17200.00 25200.00 4527.50 
          17400.00 25200.00 4548.50 17600.00 25200.00 4565.75 17800.00 25200.00 4578.25 18000.00 25200.00 4603.00 
          18200.00 25200.00 4631.50 18400.00 25200.00 4668.50 18600.00 25200.00 4715.75 18800.00 25200.00 4712.75 
          19000.00 25200.00 4642.50 19200.00 25200.00 4566.75 19400.00 25200.00 4512.00 19600.00 25200.00 4483.75 
          19800.00 25200.00 4478.00 20000.00 25200.00 4497.75 20200.00 25200.00 4542.50 20400.00 25200.00 4598.00 
          20600.00 25200.00 4657.50 20800.00 25200.00 4692.50 21000.00 25200.00 4689.00 21200.00 25200.00 4655.50 
          21400.00 25200.00 4615.75 21600.00 25200.00 4613.00 0.00 25000.00 4440.00 200.00 25000.00 4421.50 
          400.00 25000.00 4373.25 600.00 25000.00 4337.00 800.00 25000.00 4329.00 1000.00 25000.00 4334.25 
          1200.00 25000.00 4349.50 1400.00 25000.00 4356.00 1600.00 25000.00 4357.25 1800.00 25000.00 4365.25 
          2000.00 25000.00 4374.50 2200.00 25000.00 4385.25 2400.00 25000.00 4384.25 2600.00 25000.00 4378.75 
          2800.00 25000.00 4374.25 3000.00 25000.00 4371.50 3200.00 25000.00 4371.75 3400.00 25000.00 4373.50 
          3600.00 25000.00 4381.25 3800.00 25000.00 4391.25 4000.00 25000.00 4400.75 4200.00 25000.00 4429.75 
          4400.00 25000.00 4465.50 4600.00 25000.00 4500.50 4800.00 25000.00 4520.50 5000.00 25000.00 4502.75 
          5200.00 25000.00 4475.50 5400.00 25000.00 4450.50 5600.00 25000.00 4425.75 5800.00 25000.00 4429.50 
          6000.00 25000.00 4452.00 6200.00 25000.00 4458.50 6400.00 25000.00 4473.25 6600.00 25000.00 4503.75 
          6800.00 25000.00 4512.75 7000.00 25000.00 4505.50 7200.00 25000.00 4500.50 7400.00 25000.00 4492.50 
          7600.00 25000.00 4483.50 7800.00 25000.00 4495.75 8000.00 25000.00 4514.75 8200.00 25000.00 4513.00 
          8400.00 25000.00 4493.00 8600.00 25000.00 4484.00 8800.00 25000.00 4483.00 9000.00 25000.00 4466.50 
          9200.00 25000.00 4449.00 9400.00 25000.00 4433.25 9600.00 25000.00 4423.50 9800.00 25000.00 4432.25 
          10000.00 25000.00 4457.25 10200.00 25000.00 4483.25 10400.00 25000.00 4495.75 10600.00 25000.00 4515.25 
          10800.00 25000.00 4552.75 11000.00 25000.00 4586.25 11200.00 25000.00 4615.75 11400.00 25000.00 4626.50 
          11600.00 25000.00 4613.50 11800.00 25000.00 4585.00 12000.00 25000.00 4548.00 12200.00 25000.00 4522.75 
          12400.00 25000.00 4502.00 12600.00 25000.00 4483.00 12800.00 25000.00 4479.50 13000.00 25000.00 4486.00 
          13200.00 25000.00 4491.75 13400.00 25000.00 4507.75 13600.00 25000.00 4542.00 13800.00 25000.00 4586.25 
          14000.00 25000.00 4660.75 14200.00 25000.00 4689.75 14400.00 25000.00 4652.25 14600.00 25000.00 4604.75 
          14800.00 25000.00 4558.50 15000.00 25000.00 4529.25 15200.00 25000.00 4504.50 15400.00 25000.00 4492.00 
          15600.00 25000.00 4489.75 15800.00 25000.00 4486.50 16000.00 25000.00 4483.25 16200.00 25000.00 4483.50 
          16400.00 25000.00 4491.25 16600.00 25000.00 4501.75 16800.00 25000.00 4508.50 17000.00 25000.00 4517.75 
          17200.00 25000.00 4535.50 17400.00 25000.00 4571.75 17600.00 25000.00 4600.25 17800.00 25000.00 4609.50 
          18000.00 25000.00 4623.00 18200.00 25000.00 4641.50 18400.00 25000.00 4671.75 18600.00 25000.00 4717.50 
          18800.00 25000.00 4722.00 19000.00 25000.00 4665.75 19200.00 25000.00 4596.75 19400.00 25000.00 4533.25 
          19600.00 25000.00 4493.25 19800.00 25000.00 4481.50 20000.00 25000.00 4492.75 20200.00 25000.00 4530.00 
          20400.00 25000.00 4584.25 20600.00 25000.00 4646.75 20800.00 25000.00 4703.75 21000.00 25000.00 4722.75 
          21200.00 25000.00 4687.50 21400.00 25000.00 4641.25 21600.00 25000.00 4637.00 0.00 24800.00 4446.00 
          200.00 24800.00 4422.00 400.00 24800.00 4374.00 600.00 24800.00 4329.75 800.00 24800.00 4312.25 
          1000.00 24800.00 4317.75 1200.00 24800.00 4325.00 1400.00 24800.00 4325.25 1600.00 24800.00 4338.75 
          1800.00 24800.00 4359.50 2000.00 24800.00 4377.75 2200.00 24800.00 4390.50 2400.00 24800.00 4386.00 
          2600.00 24800.00 4381.00 2800.00 24800.00 4375.00 3000.00 24800.00 4370.75 3200.00 24800.00 4374.00 
          3400.00 24800.00 4372.50 3600.00 24800.00 4376.25 3800.00 24800.00 4387.75 4000.00 24800.00 4394.75 
          4200.00 24800.00 4418.25 4400.00 24800.00 4455.25 4600.00 24800.00 4492.75 4800.00 24800.00 4524.25 
          5000.00 24800.00 4522.75 5200.00 24800.00 4493.75 5400.00 24800.00 4454.25 5600.00 24800.00 4420.50 
          5800.00 24800.00 4422.00 6000.00 24800.00 4442.25 6200.00 24800.00 4454.25 6400.00 24800.00 4483.25 
          6600.00 24800.00 4536.00 6800.00 24800.00 4561.25 7000.00 24800.00 4547.50 7200.00 24800.00 4533.75 
          7400.00 24800.00 4522.00 7600.00 24800.00 4509.50 7800.00 24800.00 4518.50 8000.00 24800.00 4536.50 
          8200.00 24800.00 4531.25 8400.00 24800.00 4513.00 8600.00 24800.00 4505.25 8800.00 24800.00 4504.00 
          9000.00 24800.00 4488.50 9200.00 24800.00 4470.75 9400.00 24800.00 4455.00 9600.00 24800.00 4446.25 
          9800.00 24800.00 4463.00 10000.00 24800.00 4476.75 10200.00 24800.00 4486.00 10400.00 24800.00 4500.25 
          10600.00 24800.00 4517.00 10800.00 24800.00 4544.50 11000.00 24800.00 4576.50 11200.00 24800.00 4605.25 
          11400.00 24800.00 4619.75 11600.00 24800.00 4611.00 11800.00 24800.00 4579.25 12000.00 24800.00 4538.50 
          12200.00 24800.00 4513.50 12400.00 24800.00 4503.25 12600.00 24800.00 4492.25 12800.00 24800.00 4485.50 
          13000.00 24800.00 4489.00 13200.00 24800.00 4502.25 13400.00 24800.00 4528.75 13600.00 24800.00 4565.25 
          13800.00 24800.00 4610.25 14000.00 24800.00 4665.50 14200.00 24800.00 4674.75 14400.00 24800.00 4634.25 
          14600.00 24800.00 4593.00 14800.00 24800.00 4556.75 15000.00 24800.00 4524.50 15200.00 24800.00 4501.00 
          15400.00 24800.00 4492.25 15600.00 24800.00 4490.75 15800.00 24800.00 4488.00 16000.00 24800.00 4482.25 